Fe
           1
    10.000000    0.000000    0.000000
     0.000000   10.000000    0.000000
     0.000000    0.000000   10.000000
 Fe 
  20
Direct configuration=     1
  0.48669757  0.55972427  0.39817409
  0.48966023  0.57061071  0.58442622
  0.52542694  0.30990644  0.52241284
  0.45302606  0.62214415  0.48763382
  0.44429013  0.46638647  0.58794634
  0.37652052  0.45418806  0.49922995
  0.59283106  0.39663162  0.50236760
  0.52708687  0.39090841  0.59938539
  0.38338441  0.55552722  0.55050610
  0.54592479  0.47271154  0.43575540
  0.53733257  0.65531092  0.41828453
  0.38091209  0.54987829  0.43714628
  0.46594776  0.51518480  0.49399424
  0.52690159  0.49058951  0.65671376
  0.55159940  0.48446155  0.55024541
  0.59862934  0.56103193  0.39364647
  0.55491214  0.57641783  0.49247930
  0.63881886  0.50240944  0.48440458
  0.48087289  0.40859285  0.49940466
  0.43922477  0.45738400  0.40584303
Direct configuration=     2
  0.48456457  0.55772009  0.39809136
  0.49099746  0.57183338  0.58465358
  0.52766224  0.31090160  0.51293328
  0.45250823  0.62211172  0.48696442
  0.44598256  0.46739730  0.59019380
  0.37621325  0.45447806  0.50329524
  0.59459754  0.39833151  0.50297583
  0.52911008  0.39002482  0.59818593
  0.38419700  0.55660496  0.55271537
  0.54476132  0.47199377  0.43645866
  0.53556613  0.65354186  0.41507527
  0.37944522  0.54882099  0.43935569
  0.46554476  0.51541316  0.49525974
  0.52967377  0.49133177  0.65727476
  0.55207767  0.48537462  0.55058432
  0.59658372  0.55912352  0.39178768
  0.55433645  0.57656591  0.49109938
  0.63838245  0.50330574  0.48332698
  0.48056986  0.40921999  0.50120858
  0.43722573  0.45590523  0.40856014
Direct configuration=     3
  0.48463378  0.55639013  0.39814193
  0.49088099  0.57289068  0.58456742
  0.52801857  0.31122600  0.50078740
  0.45245746  0.62195854  0.48621238
  0.44586641  0.46857485  0.59137932
  0.37613882  0.45456828  0.50451333
  0.59496760  0.39866952  0.50532194
  0.52912900  0.39080324  0.59965133
  0.38409371  0.55723289  0.55269198
  0.54477702  0.47106607  0.43767608
  0.53554821  0.65246424  0.41400589
  0.37947922  0.54803424  0.43938533
  0.46551038  0.51542045  0.49581532
  0.52957808  0.49308303  0.65816445
  0.55199142  0.48608633  0.55160669
  0.59658414  0.55771795  0.39192303
  0.55431233  0.57648110  0.49098375
  0.63836786  0.50317110  0.48410281
  0.48035517  0.40946913  0.50320922
  0.43730981  0.45469224  0.40986040
Direct configuration=     4
  0.48478290  0.55521501  0.39826241
  0.49074827  0.57376150  0.58439067
  0.52815536  0.31243142  0.48792214
  0.45244742  0.62165885  0.48563773
  0.44563348  0.46969243  0.59242423
  0.37620145  0.45443577  0.50543077
  0.59463723  0.39836986  0.50765457
  0.52903830  0.39276021  0.60259253
  0.38399624  0.55761441  0.55253771
  0.54482489  0.47003110  0.43872168
  0.53553876  0.65158239  0.41326775
  0.37962954  0.54723077  0.43936000
  0.46557587  0.51519437  0.49627775
  0.52938654  0.49503668  0.65894102
  0.55204955  0.48673538  0.55247606
  0.59659592  0.55648421  0.39207785
  0.55435233  0.57631567  0.49088006
  0.63835591  0.50270178  0.48467730
  0.48046199  0.40931215  0.50542859
  0.43758803  0.45343606  0.41103917
Direct configuration=     5
  0.48492286  0.55402238  0.39838490
  0.49065998  0.57447079  0.58420162
  0.52836287  0.31564403  0.47627227
  0.45246649  0.62129206  0.48509268
  0.44544716  0.47063357  0.59337828
  0.37623395  0.45427880  0.50630657
  0.59428783  0.39794036  0.50973632
  0.52892969  0.39434227  0.60520641
  0.38393671  0.55792412  0.55239100
  0.54483952  0.46890913  0.43968392
  0.53555777  0.65064909  0.41258316
  0.37977625  0.54641856  0.43934515
  0.46564071  0.51488861  0.49670332
  0.52923799  0.49680267  0.65962395
  0.55208662  0.48716174  0.55325916
  0.59659545  0.55520135  0.39223114
  0.55440045  0.57604134  0.49078906
  0.63831799  0.50213023  0.48521059
  0.48048139  0.40907167  0.50745605
  0.43781831  0.45217723  0.41214444
Direct configuration=     6
  0.48504155  0.55289251  0.39847406
  0.49062234  0.57496113  0.58404660
  0.52866114  0.32027901  0.46688309
  0.45251907  0.62092214  0.48461625
  0.44529140  0.47135908  0.59417722
  0.37620141  0.45416273  0.50706226
  0.59410805  0.39756398  0.51148034
  0.52883153  0.39537326  0.60715030
  0.38391587  0.55817065  0.55226584
  0.54480595  0.46775672  0.44048809
  0.53560419  0.64972537  0.41196836
  0.37989928  0.54569781  0.43932786
  0.46568683  0.51457923  0.49704716
  0.52915127  0.49807879  0.66016999
  0.55207636  0.48738656  0.55389564
  0.59657081  0.55394037  0.39235553
  0.55444738  0.57570268  0.49070571
  0.63824500  0.50155471  0.48563407
  0.48035939  0.40887079  0.50916146
  0.43796121  0.45102248  0.41309017
Direct configuration=     7
  0.48518176  0.55170262  0.39854304
  0.49061156  0.57535373  0.58387398
  0.52896260  0.32648388  0.45816093
  0.45259096  0.62049702  0.48414583
  0.44513480  0.47202159  0.59493396
  0.37615043  0.45403842  0.50776865
  0.59396124  0.39711669  0.51317533
  0.52872576  0.39619850  0.60890591
  0.38392647  0.55835350  0.55212587
  0.54474966  0.46640335  0.44123033
  0.53566514  0.64875025  0.41138013
  0.38003960  0.54495308  0.43929403
  0.46575295  0.51421454  0.49734335
  0.52908299  0.49919055  0.66066000
  0.55204483  0.48749133  0.55448020
  0.59653348  0.55260065  0.39249247
  0.55451063  0.57529611  0.49063094
  0.63812815  0.50089042  0.48600176
  0.48014181  0.40864871  0.51085124
  0.43810516  0.44979506  0.41400204
Direct configuration=     8
  0.48536163  0.55027527  0.39860240
  0.49062992  0.57568097  0.58365281
  0.52924341  0.33554138  0.44898463
  0.45269730  0.61993663  0.48361018
  0.44495064  0.47271101  0.59575450
  0.37607778  0.45387577  0.50850666
  0.59375714  0.39646607  0.51502439
  0.52861088  0.39695739  0.61076783
  0.38397630  0.55849865  0.55192209
  0.54466856  0.46461835  0.44198925
  0.53574368  0.64758667  0.41073384
  0.38023612  0.54404900  0.43921684
  0.46586187  0.51370563  0.49762318
  0.52904052  0.50028929  0.66114720
  0.55200296  0.48746848  0.55507779
  0.59647600  0.55099914  0.39265913
  0.55460197  0.57476428  0.49055396
  0.63794390  0.50001140  0.48635697
  0.47978434  0.40832012  0.51280535
  0.43833506  0.44824449  0.41501103
Direct configuration=     9
  0.48552392  0.54875663  0.39863180
  0.49067192  0.57592689  0.58338021
  0.52885931  0.34623323  0.44038120
  0.45281542  0.61923279  0.48299984
  0.44478639  0.47332944  0.59658537
  0.37605201  0.45356982  0.50925034
  0.59310539  0.39551659  0.51641645
  0.52851198  0.39765122  0.61266539
  0.38401425  0.55858156  0.55165318
  0.54472847  0.46346077  0.44279546
  0.53583997  0.64629265  0.41005189
  0.38048049  0.54287814  0.43906459
  0.46594898  0.51307749  0.49794051
  0.52902621  0.50141077  0.66160058
  0.55201081  0.48729594  0.55566156
  0.59656176  0.54948931  0.39277401
  0.55471536  0.57408614  0.49044174
  0.63792468  0.49905097  0.48684003
  0.47951117  0.40783893  0.51475106
  0.43891151  0.44632072  0.41611480
Direct configuration=    10
  0.48560526  0.54727859  0.39861776
  0.49072385  0.57615287  0.58304855
  0.52573197  0.35597303  0.43234686
  0.45281809  0.61828268  0.48218869
  0.44474752  0.47380651  0.59753923
  0.37626180  0.45277775  0.51011138
  0.59141102  0.39417144  0.51616885
  0.52860214  0.39840785  0.61469108
  0.38388342  0.55848195  0.55133798
  0.54543510  0.46486661  0.44407834
  0.53591491  0.64485761  0.40927747
  0.38074884  0.54095520  0.43879339
  0.46589829  0.51239830  0.49851855
  0.52909393  0.50284649  0.66204994
  0.55225438  0.48698635  0.55630576
  0.59720252  0.54876051  0.39272166
  0.55483941  0.57324756  0.49026653
  0.63874436  0.49852153  0.48797831
  0.47965413  0.40725546  0.51652155
  0.44042907  0.44397169  0.41743813
Direct configuration=    11
  0.48277419  0.54587940  0.39886962
  0.49229735  0.57664123  0.58266165
  0.52079396  0.36149815  0.42646560
  0.45110178  0.61688892  0.48219090
  0.44795690  0.47399441  0.59986413
  0.37743675  0.45072981  0.51457127
  0.59107296  0.39365138  0.51268753
  0.53254309  0.39971802  0.61577257
  0.38462097  0.55725324  0.55403691
  0.54509351  0.46665601  0.44393904
  0.53245427  0.64379771  0.40741174
  0.37892038  0.53784467  0.44178329
  0.46582619  0.51157617  0.49993624
  0.53384703  0.50539772  0.66135432
  0.55419551  0.48715157  0.55534521
  0.59512578  0.54930725  0.39041578
  0.55406991  0.57321834  0.48872568
  0.63943501  0.49959468  0.48577304
  0.48109944  0.40659044  0.51821022
  0.43933504  0.44261086  0.41998525
Direct configuration=    12
  0.48273832  0.54415735  0.39901078
  0.49192335  0.57728631  0.58264380
  0.51959854  0.36591798  0.41696439
  0.45122730  0.61629394  0.48131061
  0.44820114  0.47351654  0.60006167
  0.37779713  0.44995487  0.51590000
  0.59236544  0.39449108  0.51454289
  0.53203149  0.40027803  0.61643887
  0.38459972  0.55716189  0.55458973
  0.54561618  0.46684138  0.44580421
  0.53280599  0.64159117  0.40548909
  0.37849539  0.53741728  0.44281036
  0.46574238  0.51125110  0.50065352
  0.53252699  0.50685933  0.66252810
  0.55412329  0.48791173  0.55675486
  0.59574071  0.54731398  0.39074214
  0.55401787  0.57295974  0.48864794
  0.63991134  0.49998216  0.48782075
  0.48252526  0.40567933  0.51668360
  0.43801217  0.44313481  0.42060272
Direct configuration=    13
  0.48291110  0.54271113  0.39929654
  0.49179303  0.57781005  0.58262989
  0.51918656  0.36992215  0.40543208
  0.45135731  0.61586549  0.48084610
  0.44820308  0.47386252  0.60068408
  0.37774601  0.44986608  0.51702561
  0.59345619  0.39505205  0.51747391
  0.53178268  0.40102910  0.61768125
  0.38458413  0.55741866  0.55473224
  0.54577481  0.46586448  0.44726068
  0.53292615  0.64020860  0.40465526
  0.37843518  0.53706632  0.44320916
  0.46571576  0.51096878  0.50121825
  0.53213875  0.50797054  0.66331525
  0.55405958  0.48848965  0.55777890
  0.59572023  0.54554332  0.39098928
  0.55402376  0.57255736  0.48859385
  0.64000644  0.49978836  0.48870493
  0.48311539  0.40517295  0.51682455
  0.43706387  0.44283241  0.42164821
Direct configuration=    14
  0.48305795  0.54120700  0.39954032
  0.49174719  0.57828415  0.58258384
  0.51990990  0.37522889  0.39258541
  0.45144676  0.61544944  0.48037834
  0.44805234  0.47457225  0.60156587
  0.37754704  0.44996701  0.51808449
  0.59393504  0.39518808  0.52012600
  0.53174545  0.40187989  0.61940187
  0.38454683  0.55775262  0.55474163
  0.54563721  0.46439836  0.44853411
  0.53297030  0.63889769  0.40395406
  0.37850708  0.53646377  0.44336553
  0.46568376  0.51074669  0.50174779
  0.53200094  0.50900653  0.66397078
  0.55398023  0.48887314  0.55864591
  0.59552093  0.54370793  0.39122207
  0.55401899  0.57205852  0.48849972
  0.63987980  0.49932236  0.48924212
  0.48300334  0.40519074  0.51878679
  0.43680890  0.44180493  0.42302336
Direct configuration=    15
  0.48320245  0.53954619  0.39970186
  0.49173602  0.57868511  0.58245575
  0.52055446  0.38255913  0.38073470
  0.45153956  0.61491797  0.47983880
  0.44789002  0.47530569  0.60245131
  0.37736775  0.45000890  0.51908399
  0.59416219  0.39508840  0.52249658
  0.53173731  0.40270353  0.62117219
  0.38453445  0.55802868  0.55466021
  0.54548899  0.46283509  0.44971755
  0.53298857  0.63746276  0.40320093
  0.37863794  0.53566931  0.44343027
  0.46568052  0.51042313  0.50221942
  0.53191748  0.51002616  0.66454708
  0.55391682  0.48911820  0.55942909
  0.59531880  0.54177218  0.39139510
  0.55402995  0.57146142  0.48834995
  0.63973331  0.49873043  0.48971659
  0.48276806  0.40517078  0.52100038
  0.43679538  0.44048695  0.42439826
Direct configuration=    16
  0.48333444  0.53801153  0.39974116
  0.49174802  0.57894835  0.58227653
  0.52076450  0.39013330  0.37237900
  0.45163181  0.61437743  0.47931261
  0.44778156  0.47583699  0.60310449
  0.37724899  0.44996408  0.51985907
  0.59428349  0.39489675  0.52427291
  0.53170729  0.40330967  0.62252835
  0.38454934  0.55819030  0.55453437
  0.54544459  0.46160317  0.45069702
  0.53298649  0.63613272  0.40248451
  0.37876394  0.53491939  0.44343478
  0.46569468  0.51007035  0.50255039
  0.53185022  0.51082692  0.66496161
  0.55388505  0.48923849  0.56002011
  0.59517968  0.54008281  0.39146299
  0.55406112  0.57089813  0.48816813
  0.63967564  0.49821137  0.49012184
  0.48260710  0.40503185  0.52262087
  0.43680201  0.43931639  0.42546924
Direct configuration=    17
  0.48349407  0.53628504  0.39964966
  0.49177908  0.57914121  0.58203090
  0.52064823  0.39889160  0.36565510
  0.45174278  0.61376564  0.47869710
  0.44769793  0.47626621  0.60364522
  0.37713311  0.44986996  0.52056404
  0.59440423  0.39464060  0.52588687
  0.53166429  0.40380887  0.62371573
  0.38457964  0.55830125  0.55435091
  0.54550148  0.46048067  0.45174262
  0.53294686  0.63465961  0.40164966
  0.37890575  0.53413883  0.44336823
  0.46571212  0.50967113  0.50280944
  0.53177220  0.51152776  0.66531003
  0.55387935  0.48930279  0.56054764
  0.59505542  0.53830101  0.39143293
  0.55411526  0.57028893  0.48791259
  0.63972798  0.49773693  0.49054203
  0.48247910  0.40480726  0.52400768
  0.43676112  0.43811471  0.42648162
Direct configuration=    18
  0.48373240  0.53393083  0.39935116
  0.49184242  0.57930314  0.58164977
  0.52011006  0.41100688  0.35940330
  0.45190639  0.61295966  0.47787343
  0.44762194  0.47671353  0.60417038
  0.37701104  0.44972578  0.52130421
  0.59457040  0.39426226  0.52773728
  0.53160387  0.40433245  0.62500705
  0.38465012  0.55838058  0.55404329
  0.54566121  0.45911054  0.45307041
  0.53284584  0.63271608  0.40052778
  0.37912768  0.53315414  0.44318213
  0.46576034  0.50913653  0.50301111
  0.53167095  0.51228220  0.66565924
  0.55390138  0.48933304  0.56111690
  0.59484124  0.53594927  0.39124869
  0.55420840  0.56948117  0.48749658
  0.63986184  0.49718959  0.49100859
  0.48234178  0.40445970  0.52551336
  0.43673070  0.43657262  0.42762536
Direct configuration=    19
  0.48383400  0.53182514  0.39907420
  0.49193754  0.57941128  0.58116647
  0.51948847  0.42426618  0.35503991
  0.45209275  0.61212339  0.47704459
  0.44754675  0.47711927  0.60460045
  0.37696306  0.44948763  0.52185970
  0.59472956  0.39382225  0.52954491
  0.53152493  0.40483839  0.62623892
  0.38474669  0.55837988  0.55365863
  0.54579433  0.45759975  0.45432488
  0.53283911  0.63077837  0.39935289
  0.37935478  0.53208251  0.44294669
  0.46583764  0.50853037  0.50312651
  0.53155633  0.51301394  0.66593330
  0.55394213  0.48931605  0.56161091
  0.59435880  0.53325596  0.39078735
  0.55432244  0.56855164  0.48691700
  0.63996573  0.49656000  0.49132968
  0.48219959  0.40403502  0.52692885
  0.43696537  0.43500298  0.42851416
Direct configuration=    20
  0.48316440  0.53174344  0.39968373
  0.49208614  0.57951764  0.58057671
  0.52015831  0.43607523  0.35183726
  0.45226140  0.61139536  0.47647352
  0.44739744  0.47749709  0.60508354
  0.37710565  0.44890822  0.52212038
  0.59471310  0.39334010  0.53128587
  0.53138140  0.40546949  0.62758019
  0.38479999  0.55822736  0.55333480
  0.54556469  0.45592118  0.45508967
  0.53342362  0.62947826  0.39833153
  0.37928847  0.53086403  0.44299797
  0.46587053  0.50782650  0.50337081
  0.53141700  0.51391967  0.66610195
  0.55398069  0.48923701  0.56199871
  0.59319092  0.53023578  0.38981274
  0.55440493  0.56741112  0.48609573
  0.63982013  0.49553827  0.49124903
  0.48201799  0.40353080  0.52832034
  0.43795322  0.43386348  0.42865553
Direct configuration=    21
  0.48200608  0.53341653  0.40085057
  0.49201903  0.57972358  0.57955293
  0.52187920  0.44584533  0.34827805
  0.45211903  0.61073784  0.47656050
  0.44720190  0.47803393  0.60570288
  0.37772958  0.44720175  0.52222237
  0.59422307  0.39267443  0.53316633
  0.53111504  0.40697600  0.62977255
  0.38455943  0.55728322  0.55307773
  0.54503441  0.45395508  0.45481575
  0.53500145  0.62913379  0.39810240
  0.37871836  0.52899811  0.44350492
  0.46586263  0.50678173  0.50357472
  0.53122554  0.51630576  0.66582631
  0.55394935  0.48904879  0.56223114
  0.59216417  0.52834545  0.38908259
  0.55440768  0.56597469  0.48536020
  0.63932101  0.49338022  0.49062565
  0.48208145  0.40295272  0.52991693
  0.43938160  0.43323104  0.42777548
Direct configuration=    22
  0.48182415  0.53076801  0.39998064
  0.49274126  0.57974144  0.57997236
  0.53249203  0.44485302  0.34754345
  0.45126898  0.61061827  0.47628651
  0.44785255  0.47863112  0.60649345
  0.37647226  0.44887231  0.52414091
  0.59260971  0.39165640  0.53127222
  0.53141309  0.40623828  0.62881972
  0.38490934  0.55863831  0.55459742
  0.54369955  0.45443221  0.45480887
  0.53159844  0.62829439  0.39731035
  0.37787793  0.52978448  0.44442131
  0.46499320  0.50724501  0.50392144
  0.53360746  0.51538215  0.66535114
  0.55373842  0.48852514  0.56138506
  0.59272101  0.53051004  0.39004357
  0.55346964  0.56646933  0.48543908
  0.63852038  0.49306843  0.48937701
  0.48051402  0.40329845  0.53007630
  0.43767660  0.43297321  0.42875920
Direct configuration=    23
  0.48136741  0.52984771  0.39947513
  0.49303155  0.57979115  0.58029030
  0.54461110  0.44108555  0.34702269
  0.45080170  0.61100594  0.47674699
  0.44804297  0.47887308  0.60692512
  0.37549454  0.44989800  0.52552275
  0.59151334  0.39131614  0.52967730
  0.53156083  0.40593267  0.62818772
  0.38491375  0.55939434  0.55577293
  0.54204042  0.45462537  0.45418036
  0.53009209  0.62842644  0.39744413
  0.37696657  0.53083418  0.44539046
  0.46424837  0.50771692  0.50418747
  0.53458206  0.51501430  0.66496659
  0.55345002  0.48824796  0.56074509
  0.59233456  0.53203981  0.39007885
  0.55285727  0.56665071  0.48545061
  0.63749774  0.49234479  0.48786352
  0.47949125  0.40359930  0.53011048
  0.43510247  0.43335565  0.42996150
Direct configuration=    24
  0.47986566  0.53091438  0.39989454
  0.49329262  0.57981164  0.58055721
  0.55690414  0.43549524  0.34783962
  0.45042567  0.61156997  0.47750727
  0.44816871  0.47892396  0.60724890
  0.37480720  0.45050829  0.52649583
  0.59065448  0.39122678  0.52805868
  0.53170668  0.40568368  0.62753859
  0.38487530  0.55988871  0.55682505
  0.54038026  0.45494365  0.45313507
  0.52934504  0.62919916  0.39780354
  0.37590368  0.53178893  0.44652213
  0.46360861  0.50811686  0.50453879
  0.53527911  0.51467602  0.66458678
  0.55326483  0.48805151  0.56010155
  0.59085613  0.53272582  0.38937432
  0.55237206  0.56676467  0.48528163
  0.63648036  0.49172486  0.48619700
  0.47878994  0.40384484  0.52989824
  0.43301952  0.43414105  0.43059526
Direct configuration=    25
  0.47802425  0.53232543  0.40038683
  0.49361628  0.57979014  0.58073407
  0.56958695  0.43038618  0.35067271
  0.45007967  0.61215689  0.47831392
  0.44832250  0.47893642  0.60750022
  0.37417232  0.45106098  0.52737124
  0.58977945  0.39111747  0.52629056
  0.53185934  0.40541609  0.62679444
  0.38488523  0.56033679  0.55786093
  0.53864425  0.45521221  0.45189692
  0.52867182  0.63000066  0.39811210
  0.37477938  0.53274487  0.44770316
  0.46299355  0.50847892  0.50482869
  0.53599936  0.51430204  0.66411303
  0.55312285  0.48782274  0.55934022
  0.58900218  0.53306285  0.38834001
  0.55191521  0.56678330  0.48493157
  0.63540933  0.49099203  0.48423641
  0.47810445  0.40406910  0.52957403
  0.43103164  0.43500490  0.43099897
Direct configuration=    26
  0.47649948  0.53333762  0.40064537
  0.49396088  0.57972800  0.58078993
  0.58016121  0.42723048  0.35489017
  0.44982466  0.61261503  0.47893908
  0.44849175  0.47894018  0.60764644
  0.37364216  0.45153718  0.52807025
  0.58900074  0.39093348  0.52467689
  0.53200017  0.40515999  0.62607846
  0.38495206  0.56071085  0.55870696
  0.53711625  0.45535709  0.45084906
  0.52804364  0.63056344  0.39826718
  0.37384957  0.53354954  0.44866148
  0.46248293  0.50875657  0.50499148
  0.53667940  0.51394289  0.66361088
  0.55304571  0.48757454  0.55858674
  0.58737572  0.53324535  0.38731662
  0.55155406  0.56670261  0.48449916
  0.63447941  0.49018631  0.48226922
  0.47747857  0.40422781  0.52926033
  0.42936165  0.43570105  0.43124430
Direct configuration=    27
  0.47517884  0.53408727  0.40076781
  0.49434603  0.57963012  0.58075106
  0.58944660  0.42556092  0.36029025
  0.44965092  0.61297343  0.47941872
  0.44867664  0.47893939  0.60773542
  0.37316440  0.45196835  0.52867002
  0.58826161  0.39065935  0.52309484
  0.53214830  0.40491276  0.62537443
  0.38504793  0.56105821  0.55942338
  0.53563540  0.45542865  0.44995154
  0.52744203  0.63097688  0.39832482
  0.37305498  0.53424587  0.44945809
  0.46202171  0.50898102  0.50509745
  0.53736029  0.51359154  0.66305242
  0.55304535  0.48728348  0.55780213
  0.58589485  0.53342116  0.38628425
  0.55127577  0.56652459  0.48400905
  0.63363208  0.48915783  0.48008812
  0.47686905  0.40432974  0.52898124
  0.42784721  0.43626944  0.43142497
Direct configuration=    28
  0.47371288  0.53483311  0.40081905
  0.49485890  0.57947489  0.58061301
  0.59956031  0.42498213  0.36815726
  0.44953315  0.61332516  0.47989238
  0.44891904  0.47892683  0.60779215
  0.37264533  0.45244180  0.52932181
  0.58742538  0.39028211  0.52112403
  0.53233926  0.40462051  0.62453267
  0.38520453  0.56144243  0.56018352
  0.53384381  0.45542725  0.44888939
  0.52679135  0.63135493  0.39832663
  0.37219979  0.53500787  0.45031335
  0.46151833  0.50919936  0.50517329
  0.53817515  0.51317211  0.66232749
  0.55311409  0.48687842  0.55680407
  0.58416973  0.53351379  0.38495461
  0.55103160  0.56618723  0.48332710
  0.63266846  0.48766324  0.47720339
  0.47618140  0.40440653  0.52865337
  0.42610751  0.43686030  0.43159142
Direct configuration=    29
  0.47208657  0.53557754  0.40074276
  0.49553840  0.57923307  0.58035431
  0.60942626  0.42496317  0.37788551
  0.44945655  0.61370848  0.48033814
  0.44929602  0.47883560  0.60774150
  0.37210642  0.45299622  0.53002767
  0.58662937  0.38993366  0.51848934
  0.53259470  0.40409130  0.62339030
  0.38553420  0.56186373  0.56105393
  0.53214191  0.45546503  0.44753725
  0.52618631  0.63153332  0.39807338
  0.37122981  0.53592523  0.45131133
  0.46099610  0.50940070  0.50510607
  0.53921533  0.51255193  0.66142298
  0.55303502  0.48631932  0.55563699
  0.58238231  0.53290312  0.38346010
  0.55070275  0.56577452  0.48239598
  0.63173241  0.48689429  0.47527882
  0.47549777  0.40447376  0.52806407
  0.42421176  0.43755600  0.43168957
Direct configuration=    30
  0.47044838  0.53639560  0.40046954
  0.49627707  0.57886044  0.58014341
  0.61677784  0.42269544  0.38845706
  0.44920521  0.61431270  0.48064381
  0.44995727  0.47835714  0.60745495
  0.37157577  0.45358525  0.53071774
  0.58661264  0.39023649  0.51442828
  0.53317879  0.40279302  0.62140245
  0.38602823  0.56229158  0.56225353
  0.53102428  0.45615325  0.44620725
  0.52582783  0.63131000  0.39703387
  0.37000548  0.53717273  0.45250791
  0.46025926  0.50974453  0.50483481
  0.54066918  0.51124949  0.66036776
  0.55233677  0.48565637  0.55439912
  0.58141746  0.53094366  0.38238330
  0.54981463  0.56577553  0.48130569
  0.63113183  0.48931659  0.47668419
  0.47505743  0.40455036  0.52674522
  0.42239464  0.43859981  0.43156011
Direct configuration=    31
  0.46908160  0.53734679  0.40026258
  0.49682328  0.57842059  0.58030471
  0.61976106  0.41736922  0.39876044
  0.44853989  0.61505632  0.48095840
  0.45094005  0.47742440  0.60706975
  0.37130752  0.45388712  0.53129730
  0.58749890  0.39126494  0.51093783
  0.53452462  0.40119295  0.61862505
  0.38641553  0.56240173  0.56372162
  0.53019324  0.45739801  0.44529993
  0.52532333  0.63133863  0.39563132
  0.36876833  0.53832629  0.45375172
  0.45947962  0.51027795  0.50466782
  0.54248806  0.50927885  0.65931342
  0.55178619  0.48543316  0.55304212
  0.58141546  0.52977134  0.38186897
  0.54859460  0.56650341  0.48039617
  0.63107670  0.49283445  0.47776583
  0.47500964  0.40464919  0.52504696
  0.42097238  0.43982466  0.43127808
Direct configuration=    32
  0.46780780  0.53568976  0.39946836
  0.49860562  0.57793379  0.57926006
  0.62538124  0.42042540  0.40645287
  0.44778791  0.61492939  0.47957243
  0.45216959  0.47798041  0.60706156
  0.37033460  0.45546689  0.53308222
  0.58522830  0.38894721  0.51093002
  0.53415000  0.39995289  0.61699599
  0.38793142  0.56382172  0.56441562
  0.52987226  0.45649021  0.44496623
  0.52381856  0.62940575  0.39238347
  0.36755675  0.53878648  0.45462146
  0.45878088  0.51012539  0.50414406
  0.54618117  0.50779158  0.65700298
  0.55119976  0.48419116  0.55105895
  0.58167338  0.52841128  0.38199271
  0.54701135  0.56664423  0.47880628
  0.63283334  0.49902644  0.48105763
  0.47293280  0.40436404  0.52469298
  0.41874326  0.43961597  0.43203414
Direct configuration=    33
  0.46674338  0.53515762  0.39903455
  0.50040450  0.57691856  0.57825410
  0.62869485  0.42535587  0.41378947
  0.44797016  0.61478008  0.47934657
  0.45309166  0.47804652  0.60679609
  0.36960830  0.45647992  0.53404262
  0.58135311  0.38473653  0.51022117
  0.53364646  0.39911047  0.61584166
  0.38927799  0.56445733  0.56494027
  0.52812826  0.45472305  0.44368299
  0.52324069  0.62859559  0.39117867
  0.36701480  0.53951841  0.45537348
  0.45850885  0.50966281  0.50373728
  0.54878352  0.50661059  0.65442708
  0.55177989  0.48229045  0.54844580
  0.58111439  0.52712094  0.38177977
  0.54630695  0.56586852  0.47746683
  0.63706854  0.50699138  0.48495186
  0.47080334  0.40381695  0.52446445
  0.41646037  0.43975843  0.43222528
Direct configuration=    34
  0.46552316  0.53480797  0.39855609
  0.50216746  0.57608735  0.57693113
  0.63034000  0.43129357  0.42071680
  0.44892248  0.61445847  0.47923667
  0.45385979  0.47812178  0.60648283
  0.36916576  0.45723354  0.53474651
  0.57854114  0.38160961  0.50928408
  0.53336645  0.39848459  0.61501559
  0.39056952  0.56492068  0.56522732
  0.52591177  0.45276453  0.44199439
  0.52282933  0.62792298  0.39050469
  0.36673759  0.54022497  0.45602860
  0.45845037  0.50915426  0.50328182
  0.55067366  0.50580211  0.65228019
  0.55230184  0.48051732  0.54622125
  0.57897019  0.52581539  0.37961741
  0.54659146  0.56404634  0.47574309
  0.64143274  0.51359249  0.49141943
  0.46926320  0.40331688  0.52433338
  0.41438208  0.43982517  0.43237874
Direct configuration=    35
  0.46434444  0.53455103  0.39810799
  0.50386826  0.57540595  0.57554830
  0.63074074  0.43735449  0.42675492
  0.45020706  0.61406649  0.47912377
  0.45454424  0.47819455  0.60617629
  0.36896240  0.45782609  0.53527554
  0.57671480  0.37945235  0.50829210
  0.53321803  0.39790712  0.61439101
  0.39179908  0.56529533  0.56539455
  0.52410339  0.45123196  0.44048427
  0.52258758  0.62729189  0.39003050
  0.36662576  0.54084713  0.45660441
  0.45854058  0.50872118  0.50283632
  0.55214318  0.50518191  0.65060756
  0.55262817  0.47895671  0.54456192
  0.57608049  0.52457689  0.37626544
  0.54744903  0.56183392  0.47386133
  0.64443356  0.51851152  0.49899618
  0.46825602  0.40292064  0.52417583
  0.41275319  0.43987284  0.43251176
Direct configuration=    36
  0.46342783  0.53430467  0.39769792
  0.50553475  0.57472587  0.57426876
  0.63005620  0.44310173  0.43277290
  0.45139614  0.61369568  0.47894326
  0.45532327  0.47823057  0.60585938
  0.36890374  0.45836905  0.53577155
  0.57517239  0.37749080  0.50724009
  0.53325520  0.39737302  0.61370342
  0.39304182  0.56560900  0.56551934
  0.52241473  0.44976283  0.43903982
  0.52259492  0.62661521  0.38950597
  0.36662352  0.54139044  0.45712058
  0.45873624  0.50831455  0.50240029
  0.55369448  0.50455476  0.64892007
  0.55307228  0.47748325  0.54288681
  0.57390326  0.52328464  0.37360464
  0.54825756  0.55991122  0.47217444
  0.64586077  0.52328891  0.50592947
  0.46744738  0.40255253  0.52399614
  0.41128353  0.43994127  0.43264514
Direct configuration=    37
  0.46268498  0.53403714  0.39729360
  0.50726662  0.57403536  0.57299233
  0.62837524  0.44888603  0.43891186
  0.45260512  0.61331260  0.47872350
  0.45618926  0.47825534  0.60552605
  0.36895417  0.45890084  0.53625850
  0.57384107  0.37566943  0.50608461
  0.53340989  0.39685652  0.61296180
  0.39435537  0.56589211  0.56560935
  0.52076964  0.44826583  0.43758223
  0.52275814  0.62588099  0.38897353
  0.36672305  0.54190663  0.45761389
  0.45903814  0.50789974  0.50194835
  0.55534456  0.50392442  0.64718165
  0.55362448  0.47603594  0.54118101
  0.57214761  0.52191186  0.37132233
  0.54912929  0.55806235  0.47056754
  0.64613004  0.52805600  0.51268468
  0.46677310  0.40218808  0.52379598
  0.40988023  0.44002279  0.43278720
Direct configuration=    38
  0.46200876  0.53368228  0.39682429
  0.50933927  0.57328698  0.57153615
  0.62571462  0.45540440  0.44520957
  0.45404407  0.61286665  0.47841021
  0.45727733  0.47829933  0.60515076
  0.36913290  0.45950285  0.53682224
  0.57273409  0.37406994  0.50463601
  0.53364707  0.39619057  0.61217668
  0.39596328  0.56622354  0.56568990
  0.51914341  0.44663919  0.43601580
  0.52312707  0.62493618  0.38835280
  0.36692779  0.54248855  0.45814634
  0.45944196  0.50744029  0.50139812
  0.55731509  0.50325694  0.64534421
  0.55399278  0.47451689  0.53962573
  0.57047950  0.52029686  0.36897446